
 displacements (vx,vy,vz) for set NALL and time  0.2500000E+00

         1  0.000000E+00  0.000000E+00  0.000000E+00
         2  0.000000E+00  0.000000E+00  0.000000E+00
         3  2.770345E-03  6.744040E-04  0.000000E+00
         4 -2.770959E-03  6.740488E-04  0.000000E+00
         5 -3.001055E-05  1.825929E-01  9.599147E-03
         6  9.882215E-05  1.825936E-01  9.591733E-03
         7  2.360077E-04  1.824776E-01 -1.432784E-02
         8 -1.686712E-04  1.824768E-01 -1.432027E-02
         9  1.357445E-05  2.379016E-03  0.000000E+00
        10  8.174925E-08  3.100777E-03  0.000000E+00
        11 -1.348900E-05  2.379128E-03  0.000000E+00
        12 -9.347036E-05  5.804386E-04  0.000000E+00
        13 -1.292273E-04  1.332405E-03  0.000000E+00
        14  7.401724E-04  8.656152E-04  0.000000E+00
        15  1.307353E-03  3.624787E-03  0.000000E+00
        16 -2.597201E-07  2.627138E-03  0.000000E+00
        17 -1.307962E-03  3.624783E-03  0.000000E+00
        18 -7.404320E-04  8.652880E-04  0.000000E+00
        19  1.291225E-04  1.332028E-03  0.000000E+00
        20  9.347172E-05  5.802336E-04  0.000000E+00
        21  1.312735E-05  1.841350E-01  1.049551E-02
        22  3.441512E-05  1.864241E-01  1.128662E-02
        23  5.569321E-05  1.841353E-01  1.049180E-02
        24  2.749278E-04  1.829196E-01  3.781728E-03
        25  1.596758E-04  1.829911E-01 -2.302556E-03
        26  2.239778E-04  1.827602E-01 -8.340720E-03
        27  1.163190E-04  1.824797E-01 -1.422792E-02
        28  3.364178E-05  1.824809E-01 -1.416690E-02
        29 -4.901011E-05  1.824793E-01 -1.422417E-02
        30 -1.563083E-04  1.827595E-01 -8.333214E-03
        31 -9.166054E-05  1.829905E-01 -2.295114E-03
        32 -2.065280E-04  1.829189E-01  3.789151E-03
        33 -1.694976E-03  5.740599E-03  5.428490E-03
        34 -5.248453E-04  1.449921E-02  9.317254E-03
        35 -4.119550E-04  2.711263E-02  1.105097E-02
        36  4.496233E-05  3.939394E-02  1.129830E-02
        37 -4.190769E-06  5.168103E-02  1.126793E-02
        38  3.187817E-05  6.359580E-02  1.108757E-02
        39 -9.432951E-07  7.558227E-02  1.093337E-02
        40  1.963633E-05  8.744579E-02  1.078759E-02
        41  5.760354E-06  9.940370E-02  1.064623E-02
        42  2.972264E-05  1.112449E-01  1.050834E-02
        43  3.000949E-06  1.232430E-01  1.036278E-02
        44  5.687539E-05  1.349983E-01  1.022478E-02
        45 -3.281253E-05  1.470785E-01  1.011360E-02
        46  1.089421E-04  1.584992E-01  1.005379E-02
        47 -1.674812E-04  1.712253E-01  1.001803E-02
        48  2.288667E-04  1.712247E-01  1.002542E-02
        49 -5.497001E-05  1.584986E-01  1.006109E-02
        50  7.949851E-05  1.470779E-01  1.012071E-02
        51 -1.723715E-05  1.349977E-01  1.023160E-02
        52  2.991582E-05  1.232424E-01  1.036922E-02
        53 -3.107008E-06  1.112444E-01  1.051433E-02
        54  1.504654E-05  9.940324E-02  1.065168E-02
        55 -4.056705E-06  8.744536E-02  1.079244E-02
        56  1.193936E-05  7.558185E-02  1.093755E-02
        57 -2.473436E-05  6.359539E-02  1.109100E-02
        58  8.274156E-06  5.168059E-02  1.127055E-02
        59 -4.303249E-05  3.939348E-02  1.130006E-02
        60  4.126940E-04  2.711204E-02  1.105193E-02
        61  5.250968E-04  1.449870E-02  9.317576E-03
        62  1.695088E-03  5.740171E-03  5.428553E-03
        63  1.945552E-03  3.970688E-03 -5.396843E-03
        64  6.018387E-04  1.578341E-02 -9.674006E-03
        65 -8.738851E-05  2.765243E-02 -1.158890E-02
        66  5.717837E-05  3.955017E-02 -1.229822E-02
        67 -2.549519E-05  5.145738E-02 -1.261042E-02
        68  9.123532E-06  6.336796E-02 -1.278100E-02
        69 -4.318547E-06  7.527960E-02 -1.290735E-02
        70  1.448145E-05  8.719108E-02 -1.303990E-02
        71  5.813979E-06  9.910242E-02 -1.317867E-02
        72  1.912450E-05  1.110139E-01 -1.331100E-02
        73  8.865953E-06  1.229250E-01 -1.345876E-02
        74  4.337508E-05  1.348365E-01 -1.359163E-02
        75  4.509509E-06  1.467469E-01 -1.377101E-02
        76  5.539350E-05  1.586571E-01 -1.395742E-02
        77  9.266608E-05  1.705667E-01 -1.417106E-02
        78 -1.946159E-03  3.969761E-03 -5.396830E-03
        79 -6.032784E-04  1.578249E-02 -9.673855E-03
        80  8.622544E-05  2.765153E-02 -1.158797E-02
        81 -5.692598E-05  3.954929E-02 -1.229638E-02
        82  2.805052E-05  5.145652E-02 -1.260776E-02
        83 -3.452010E-06  6.336712E-02 -1.277754E-02
        84  1.386227E-05  7.527877E-02 -1.290316E-02
        85 -3.830368E-07  8.719028E-02 -1.303505E-02
        86  1.345467E-05  9.910163E-02 -1.317322E-02
        87  5.927822E-06  1.110131E-01 -1.330501E-02
        88  2.244410E-05  1.229243E-01 -1.345231E-02
        89 -5.382936E-06  1.348358E-01 -1.358481E-02
        90  4.047502E-05  1.467461E-01 -1.376390E-02
        91 -3.127538E-06  1.586563E-01 -1.395010E-02
        92 -3.293235E-05  1.705659E-01 -1.416360E-02
        93  5.586434E-09  2.167002E-03  0.000000E+00
        94 -2.508648E-05  1.173900E-03  0.000000E+00
        95 -1.009872E-08  1.757762E-03  0.000000E+00
        96  2.506346E-05  1.174139E-03  0.000000E+00
        97 -2.105886E-07  2.062956E-03  0.000000E+00
        98  3.420160E-05  1.844303E-01  3.832081E-03
        99 -9.185740E-05  1.830064E-01 -2.297624E-03
       100  3.400679E-05  1.828065E-01 -2.346536E-03
       101  1.598759E-04  1.830067E-01 -2.301346E-03
       102  3.382420E-05  1.826244E-01 -8.243958E-03
       103  7.518162E-08  6.005207E-03  5.361416E-03
       104  2.615156E-04  1.513948E-02  9.466442E-03
       105  7.543665E-08  1.573653E-02  9.480067E-03
       106 -2.613363E-04  1.513971E-02  9.466262E-03
       107  3.116753E-07  2.701548E-02  1.109477E-02
       108 -1.915739E-05  3.956127E-02  1.134720E-02
       109  9.010619E-07  3.971234E-02  1.136057E-02
       110  2.099366E-05  3.956150E-02  1.134630E-02
       111  1.982969E-06  5.158439E-02  1.127931E-02
       112 -1.199478E-05  6.364814E-02  1.109040E-02
       113  3.511148E-06  6.371113E-02  1.109875E-02
       114  1.904790E-05  6.364834E-02  1.108869E-02
       115  5.444732E-06  7.554470E-02  1.093681E-02
       116  2.161276E-06  8.748401E-02  1.079241E-02
       117  7.741199E-06  8.752367E-02  1.079050E-02
       118  1.334612E-05  8.748423E-02  1.079000E-02
       119  1.036185E-05  9.936544E-02  1.064622E-02
       120  4.696747E-06  1.113108E-01  1.050685E-02
       121  1.327007E-05  1.113630E-01  1.050013E-02
       122  2.186282E-05  1.113110E-01  1.050387E-02
       123  1.642777E-05  1.231621E-01  1.038146E-02
       124  1.456226E-06  1.351475E-01  1.024936E-02
       125  1.979412E-05  1.353528E-01  1.026377E-02
       126  3.814446E-05  1.351478E-01  1.024597E-02
       127  2.332476E-05  1.468557E-01  1.008307E-02
       128 -8.361583E-06  1.591052E-01  9.994628E-03
       129  2.697330E-05  1.594728E-01  9.962669E-03
       130  6.231556E-05  1.591055E-01  9.990991E-03
       131  3.069158E-05  1.705914E-01  1.027482E-02
       132  2.155575E-04  4.868842E-03  5.276063E-05
       133 -2.815791E-04  1.432154E-02  4.373790E-03
       134 -1.598471E-04  1.448423E-02  2.071059E-04
       135  3.890622E-04  1.494799E-02 -4.192918E-03
       136 -8.292001E-05  2.684853E-02 -3.141252E-04
       137 -3.928246E-05  3.939601E-02  5.331907E-03
       138 -9.139891E-05  3.944142E-02 -5.211687E-04
       139 -4.609611E-05  3.949581E-02 -6.459442E-03
       140  1.635491E-06  5.151340E-02 -7.191840E-04
       141  7.753738E-06  6.355872E-02  5.123184E-03
       142 -2.286499E-05  6.351705E-02 -8.560599E-04
       143 -1.071853E-06  6.343691E-02 -6.809111E-03
       144  7.346286E-06  7.541514E-02 -9.913584E-04
       145  9.454021E-06  8.739988E-02  4.830247E-03
       146 -1.529761E-06  8.735241E-02 -1.125075E-03
       147  4.928308E-06  8.727325E-02 -7.085942E-03
       148  1.421120E-05  9.923899E-02 -1.262444E-03
       149  1.366268E-05  1.112099E-01  4.547373E-03
       150  3.096268E-06  1.111807E-01 -1.410739E-03
       151  1.055664E-05  1.110979E-01 -7.360048E-03
       152  1.795841E-05  1.230464E-01 -1.544497E-03
       153  3.164796E-05  1.350116E-01  4.272425E-03
       154 -1.862613E-05  1.350050E-01 -1.703685E-03
       155  1.425359E-05  1.349181E-01 -7.647634E-03
       156  5.697703E-05  1.468510E-01 -1.796498E-03
       157  2.212609E-05  1.586218E-01  4.010304E-03
       158 -7.459119E-06  1.588282E-01 -1.985796E-03
       159  2.156102E-05  1.587435E-01 -7.987155E-03
       160  6.857756E-05  1.706924E-01 -2.216771E-03
       161 -1.501187E-07  3.965427E-03 -5.598181E-03
       162  3.354185E-04  1.577673E-02 -9.944603E-03
       163 -7.044985E-07  1.577804E-02 -9.880133E-03
       164 -3.368535E-04  1.577627E-02 -9.944414E-03
       165 -6.427861E-07  2.764909E-02 -1.170942E-02
       166  2.003976E-05  3.955148E-02 -1.223375E-02
       167  5.922796E-08  3.955125E-02 -1.223363E-02
       168 -1.990884E-05  3.955104E-02 -1.223286E-02
       169  1.198610E-06  5.145680E-02 -1.261539E-02
       170  7.967988E-06  6.336785E-02 -1.277583E-02
       171  2.781735E-06  6.336809E-02 -1.275616E-02
       172 -2.378358E-06  6.336743E-02 -1.277411E-02
       173  4.716483E-06  7.527907E-02 -1.290982E-02
       174  1.027541E-05  8.719096E-02 -1.303552E-02
       175  7.003174E-06  8.719074E-02 -1.303511E-02
       176  3.753005E-06  8.719055E-02 -1.303310E-02
       177  9.598840E-06  9.910213E-02 -1.317146E-02
       178  1.579967E-05  1.110135E-01 -1.331729E-02
       179  1.248989E-05  1.110132E-01 -1.332332E-02
       180  9.198385E-06  1.110131E-01 -1.331431E-02
       181  1.562321E-05  1.229249E-01 -1.344535E-02
       182  3.031164E-05  1.348357E-01 -1.361442E-02
       183  1.897264E-05  1.348350E-01 -1.363529E-02
       184  7.643558E-06  1.348354E-01 -1.361102E-02
       185  2.247359E-05  1.467475E-01 -1.372532E-02
       186  4.397971E-05  1.586569E-01 -1.395415E-02
       187  2.612093E-05  1.586566E-01 -1.395716E-02
       188  8.271133E-06  1.586566E-01 -1.395050E-02
       189  2.987215E-05  1.705669E-01 -1.413981E-02
       190 -2.158463E-04  4.868376E-03  5.275348E-05
       191 -3.898687E-04  1.494716E-02 -4.192715E-03
       192  1.594896E-04  1.448346E-02  2.074142E-04
       193  2.815361E-04  1.432092E-02  4.374129E-03
       194  8.288555E-05  2.684775E-02 -3.131848E-04
       195  4.685635E-05  3.949495E-02 -6.457624E-03
       196  9.263324E-05  3.944065E-02 -5.193855E-04
       197  4.092248E-05  3.939538E-02  5.333668E-03
       198  1.806918E-06  5.151272E-02 -7.165453E-04
       199  7.188909E-06  6.343617E-02 -6.805656E-03
       200  2.937878E-05  6.351641E-02 -8.526138E-04
       201 -8.986315E-07  6.355819E-02  5.126624E-03
       202  3.024442E-06  7.541451E-02 -9.871733E-04
       203  9.610424E-06  8.727253E-02 -7.081086E-03
       204  1.645820E-05  8.735178E-02 -1.120218E-03
       205  5.825470E-06  8.739935E-02  4.835106E-03
       206  5.922055E-06  9.923836E-02 -1.256980E-03
       207  1.494150E-05  1.110972E-01 -7.354053E-03
       208  2.280599E-05  1.111801E-01 -1.404743E-03
       209  1.261588E-05  1.112093E-01  4.553371E-03
       210  1.421827E-05  1.230457E-01 -1.538047E-03
       211  2.418378E-05  1.349174E-01 -7.640814E-03
       212  5.748716E-05  1.350044E-01 -1.696862E-03
       213  7.614175E-06  1.350110E-01  4.279251E-03
       214 -1.109779E-05  1.468503E-01 -1.789385E-03
       215  3.115856E-05  1.587427E-01 -7.979833E-03
       216  6.060537E-05  1.588275E-01 -1.978482E-03
       217  3.143986E-05  1.586211E-01  4.017615E-03
       218 -8.009274E-06  1.706917E-01 -2.209352E-03
       219 -1.488070E-07  5.724608E-03 -2.013879E-05
       220 -4.972643E-08  1.503971E-02  4.478570E-03
       221  7.276206E-05  1.465860E-02  1.401512E-04
       222 -1.942378E-07  1.452802E-02  9.504076E-05
       223 -7.315116E-05  1.465898E-02  1.399385E-04
       224 -4.396802E-07  1.508753E-02 -4.402056E-03
       225 -6.411733E-08  2.704778E-02 -2.916680E-04
       226  7.473695E-07  3.948794E-02  5.369676E-03
       227  4.580765E-05  3.936054E-02 -5.246148E-04
       228  5.451424E-07  3.933181E-02 -5.420286E-04
       229 -4.468291E-05  3.936089E-02 -5.255057E-04
       230  3.207073E-07  3.941462E-02 -6.444604E-03
       231  1.656124E-06  5.155254E-02 -6.887751E-04
       232  3.368371E-06  6.358557E-02  5.118192E-03
       233  1.589848E-05  6.348792E-02 -8.592153E-04
       234  3.196622E-06  6.344874E-02 -8.669495E-04
       235 -9.474433E-06  6.348824E-02 -8.609285E-04
       236  2.999655E-06  6.340964E-02 -6.798858E-03
       237  5.131995E-06  7.543391E-02 -9.850678E-04
       238  7.591113E-06  8.741561E-02  4.831740E-03
       239  1.157129E-05  8.732942E-02 -1.121017E-03
       240  7.416830E-06  8.730978E-02 -1.122326E-03
       241  3.285152E-06  8.732973E-02 -1.123436E-03
       242  7.220880E-06  8.725033E-02 -7.083260E-03
       243  1.002331E-05  9.925879E-02 -1.265750E-03
       244  1.310184E-05  1.112419E-01  4.563781E-03
       245  1.941984E-05  1.111470E-01 -1.399777E-03
       246  1.291484E-05  1.111167E-01 -1.393134E-03
       247  6.427133E-06  1.111473E-01 -1.402764E-03
       248  1.271028E-05  1.110641E-01 -7.357618E-03
       249  1.605788E-05  1.230906E-01 -1.544922E-03
       250  1.960550E-05  1.351070E-01  4.270008E-03
       251  3.278822E-05  1.349474E-01 -1.666211E-03
       252  1.940469E-05  1.348783E-01 -1.638914E-03
       253  6.034609E-06  1.349477E-01 -1.669612E-03
       254  1.919491E-05  1.348560E-01 -7.632690E-03
       255  2.292241E-05  1.469377E-01 -1.867742E-03
       256  2.677168E-05  1.590558E-01  4.167360E-03
       257  5.669685E-05  1.586750E-01 -1.961737E-03
       258  2.656236E-05  1.585674E-01 -1.942759E-03
       259 -3.566714E-06  1.586754E-01 -1.965379E-03
       260  2.634699E-05  1.586127E-01 -7.977099E-03
       261  3.028088E-05  1.709644E-01 -2.131403E-03

 stresses (elem, integ.pnt.,sxx,syy,szz,sxy,sxz,syz) for set EALL and time  0.2500000E+00

         1   1  3.194607E+02  2.671825E+02  2.001892E+03  2.146524E+02  1.806672E+02  2.778649E+02
         1   2  1.905907E+02 -5.411680E+01  1.850173E+03 -2.474786E+01  3.761514E+01  6.700299E+01
         1   3  4.583511E+00 -4.026936E+01  4.429242E+02 -5.277833E+01  7.127501E+00  2.129573E+02
         1   4  8.441224E+01 -1.150848E+02  4.315023E+02  1.074742E+02  5.771116E-01  1.969028E+02
         1   5 -1.125369E+02 -1.215326E+02  1.211004E+03 -7.548925E+01 -1.081350E+02  1.312305E+02
         1   6 -3.971378E+01 -6.948253E+00  1.321872E+03 -4.907121E+01 -4.279048E+01  2.173578E+02
         1   7 -1.570423E+01 -5.868090E+01  3.412403E+02 -6.449436E+01  4.227986E+00  4.417828E+02
         1   8  5.622453E+01  6.227422E+00  3.953131E+02  6.845450E+00 -1.960122E+00  3.823601E+02
         2   1  1.905737E+02 -5.412167E+01  1.850159E+03  2.476323E+01 -3.762319E+01  6.700926E+01
         2   2  3.194526E+02  2.672287E+02  2.001886E+03 -2.146661E+02 -1.806636E+02  2.779089E+02
         2   3  8.444010E+01 -1.150748E+02  4.315073E+02 -1.074345E+02 -6.101387E-01  1.969049E+02
         2   4  4.576435E+00 -4.023491E+01  4.429278E+02  5.277000E+01 -7.146672E+00  2.129779E+02
         2   5 -3.971724E+01 -6.951076E+00  1.321839E+03  4.907768E+01  4.275535E+01  2.173515E+02
         2   6 -1.125361E+02 -1.215376E+02  1.210899E+03  7.549515E+01  1.081232E+02  1.312341E+02
         2   7  5.622593E+01  6.229701E+00  3.952772E+02 -6.833371E+00  1.912736E+00  3.823646E+02
         2   8 -1.571440E+01 -5.867610E+01  3.411200E+02  6.449623E+01 -4.245460E+00  4.418192E+02
         3   1 -1.444731E+02 -2.597279E+02 -5.304615E+02  1.076219E+01 -6.039466E+01  1.200782E+02
         3   2 -1.480838E+01 -1.605903E+02 -4.911309E+02  4.994394E+01 -1.694654E+01  1.115008E+02
         3   3  1.139685E+02 -2.925648E+02 -1.792888E+03  1.686425E+02  7.144134E+00 -1.327052E+02
         3   4  1.604917E+01 -3.401796E+02 -1.884166E+03 -3.997014E+02  2.125987E+00 -2.747166E+02
         3   5  6.820765E+00 -1.130242E+02 -2.592761E+02 -3.048072E+01  1.511440E+01  5.071692E+02
         3   6 -2.320644E+01 -2.825133E+02 -3.296397E+02 -1.237742E+01  3.986690E+00  4.267324E+02
         3   7 -3.392902E+01 -1.369730E+02 -1.315914E+03 -1.603093E+01  3.994601E+01  3.469242E+02
         3   8 -1.419133E+02 -4.534075E+02 -1.446980E+03 -1.641844E+02  3.024155E+01  3.409806E+02
         4   1 -1.477691E+01 -1.606142E+02 -4.911354E+02 -4.993166E+01  1.692754E+01  1.115052E+02
         4   2 -1.444465E+02 -2.596973E+02 -5.304431E+02 -1.072485E+01  6.038342E+01  1.200988E+02
         4   3  1.596965E+01 -3.402370E+02 -1.884220E+03  3.997540E+02 -2.098585E+00 -2.746957E+02
         4   4  1.139963E+02 -2.924828E+02 -1.792865E+03 -1.685794E+02 -7.122194E+00 -1.326427E+02
         4   5 -2.319646E+01 -2.825028E+02 -3.296689E+02  1.241366E+01 -4.066807E+00  4.267392E+02
         4   6  6.855257E+00 -1.129367E+02 -2.593451E+02  3.051966E+01 -1.515138E+01  5.072085E+02
         4   7 -1.419823E+02 -4.534192E+02 -1.447033E+03  1.642380E+02 -3.041996E+01  3.409832E+02
         4   8 -3.392584E+01 -1.368557E+02 -1.315949E+03  1.606099E+01 -4.004683E+01  3.469308E+02
         5   1  6.517545E+01  9.236536E+01  7.005718E+02  2.017626E+01  2.843976E+01  2.206292E+02
         5   2  3.016436E+01  2.009899E+01  6.451886E+02  3.796302E+01  5.655925E-01  1.147886E+02
         5   3  3.085421E+00  1.479818E+02  1.226240E+02  3.967902E+01  2.177749E+00  4.402232E+02
         5   4 -3.554464E+01  2.118536E+01  9.061357E+01 -2.955577E+00  2.265139E+00  3.966507E+02
         5   5 -3.902533E+01 -1.322586E+01  1.148030E+02 -1.728182E+01 -2.741871E+01  4.823289E+01
         5   6 -1.819304E+01  4.062808E+01  1.343464E+02 -1.439236E+01 -1.146881E+01  8.361531E+01
         5   7  6.806114E+00  9.087732E+01  7.895011E+01 -2.270610E+00  2.241150E+00  1.468327E+02
         5   8  2.018789E+01  1.262064E+02  7.930988E+01 -4.551276E-01  2.166642E+00  1.208471E+02
         6   1  3.016790E+01  2.010387E+01  6.451384E+02 -3.796898E+01 -6.045151E-01  1.147886E+02
         6   2  6.517790E+01  9.236892E+01  7.003703E+02 -2.017566E+01 -2.845694E+01  2.206333E+02
         6   3 -3.554891E+01  2.119394E+01  9.056761E+01  2.952157E+00 -2.328665E+00  3.966493E+02
         6   4  3.084392E+00  1.480061E+02  1.224362E+02 -3.967775E+01 -2.205577E+00  4.402283E+02
         6   5 -1.819132E+01  4.062154E+01  1.342749E+02  1.438436E+01  1.144230E+01  8.361299E+01
         6   6 -3.902659E+01 -1.323340E+01  1.145336E+02  1.727848E+01  2.740665E+01  4.821956E+01
         6   7  2.018648E+01  1.261972E+02  7.923900E+01  4.309798E-01 -2.185311E+00  1.208450E+02
         6   8  6.802725E+00  9.086067E+01  7.867324E+01  2.260422E+00 -2.245619E+00  1.468250E+02
         7   1 -4.014721E+00  2.709371E+02 -2.978360E+02 -1.629335E+01 -4.523130E+00  4.029552E+02
         7   2  4.800075E+01  3.152930E+02 -2.325406E+02 -2.621192E+01  3.600075E+00  3.903019E+02
         7   3  4.117527E+01  4.524259E+02 -5.547196E+02  1.849031E+01  1.725507E+01  5.071802E+01
         7   4  5.920892E+01  3.671929E+02 -5.489563E+02  3.785784E+00  3.228852E+01  4.605336E+01
         7   5 -8.262506E+00  1.688955E+02 -8.459537E+01  1.399818E+01  4.748740E+00  1.396229E+02
         7   6 -1.282824E+01  1.472089E+02 -8.984595E+01  6.989328E+00  1.689971E+00  1.022576E+02
         7   7 -1.800071E+01  2.184212E+02 -1.468908E+02  1.107604E+01 -1.757954E+01  3.105933E+01
         7   8 -6.841556E+00  2.110798E+02 -1.086335E+02  4.208786E+00 -3.105429E+00  1.985154E+01
         8   1  4.800608E+01  3.152937E+02 -2.325864E+02  2.617058E+01 -3.674864E+00  3.903008E+02
         8   2 -4.031387E+00  2.709087E+02 -2.980565E+02  1.626840E+01  4.493348E+00  4.029650E+02
         8   3  5.921312E+01  3.671952E+02 -5.490029E+02 -3.838819E+00 -3.237587E+01  4.604981E+01
         8   4  4.114802E+01  4.523952E+02 -5.549654E+02 -1.855299E+01 -1.727553E+01  5.071602E+01
         8   5 -1.282876E+01  1.472098E+02 -8.991322E+01 -7.024720E+00 -1.701903E+00  1.022554E+02
         8   6 -8.270785E+00  1.688654E+02 -8.488724E+01 -1.401655E+01 -4.752578E+00  1.396151E+02
         8   7 -6.846510E+00  2.110711E+02 -1.087012E+02 -4.252603E+00  3.110320E+00  1.985008E+01
         8   8 -1.801212E+01  2.183552E+02 -1.471980E+02 -1.111367E+01  1.758584E+01  3.105141E+01
         9   1  1.834599E+01  1.714051E+01  5.047066E+01  1.701414E+01  1.180831E+01  3.018412E+01
         9   2 -4.734522E+00 -2.535885E+01  2.125174E+01  9.382874E+00  2.335162E+00  5.952192E-01
         9   3 -2.101736E+00  3.434589E+01  1.009987E+01 -3.280349E+00 -3.226111E+00  5.131325E+01
         9   4 -5.839325E+00  1.903716E+01  1.104042E+01  5.091424E+00 -1.103691E+00  5.048473E+01
         9   5 -6.146717E+00 -7.514299E+00 -1.352354E+01 -6.212894E+00 -3.046320E+00 -7.026414E+00
         9   6  2.239300E+00  1.180909E+01 -9.040867E+00 -5.178683E+00 -3.998331E-01  1.103382E+01
         9   7  3.327986E+00  6.971001E+00  6.479785E+00 -8.244334E-01  4.243708E+00  1.899264E+00
         9   8  6.417160E+00  2.017984E+01  2.242942E-01  2.212498E-02  2.047230E+00 -7.883209E-01
        10   1 -4.733712E+00 -2.536290E+01  2.117741E+01 -9.385031E+00 -2.340627E+00  5.943312E-01
        10   2  1.834911E+01  1.714837E+01  5.019113E+01 -1.701294E+01 -1.180932E+01  3.017656E+01
        10   3 -5.840649E+00  1.902796E+01  1.096250E+01 -5.107908E+00  1.105672E+00  5.048252E+01
        10   4 -2.096851E+00  3.433982E+01  9.815734E+00  3.277380E+00  3.226595E+00  5.129717E+01
        10   5  2.239151E+00  1.180820E+01 -9.109962E+00  5.176977E+00  4.085541E-01  1.103173E+01
        10   6 -6.148184E+00 -7.516707E+00 -1.379066E+01  6.212596E+00  3.050405E+00 -7.034723E+00
        10   7  6.416657E+00  2.017716E+01  1.534378E-01 -2.784459E-02 -2.036973E+00 -7.896158E-01
        10   8  3.326743E+00  6.963712E+00  6.211231E+00  8.225318E-01 -4.239905E+00  1.890071E+00
        11   1  4.762700E+00  7.649216E+01 -2.155341E+00 -8.612688E+00 -4.300585E+00  2.644646E+01
        11   2  3.549944E+00  7.151025E+01  3.835621E+00  2.363782E+00 -4.260048E+00  3.996691E+01
        11   3  6.937482E+00  7.411165E+01 -4.281737E+01 -1.531502E+01  1.499401E+01  3.430220E+01
        11   4 -3.403175E+00  8.263313E+01 -5.461801E+01 -3.758291E+00 -3.748424E+00  4.036508E+01
        11   5  2.795468E+00  9.345935E+00  9.887277E+00  3.970230E+00  3.486483E+00  5.832267E+00
        11   6 -1.756529E+00  2.163038E+00 -2.516183E-01  2.348358E+00  1.678630E+00 -3.924830E+00
        11   7 -1.817435E+00  1.477487E+01  5.002548E+00  2.360020E+00 -4.311592E+00  1.202247E+00
        11   8  2.981408E-02  1.515005E+01  1.111123E+01  9.768412E-01 -1.685594E+00 -2.019685E+00
        12   1  3.544191E+00  7.150950E+01  3.758790E+00 -2.380324E+00  4.266655E+00  3.996508E+01
        12   2  4.765839E+00  7.647819E+01 -2.439063E+00  8.608704E+00  4.302201E+00  2.642969E+01
        12   3 -3.419202E+00  8.261774E+01 -5.470246E+01  3.737517E+00  3.762880E+00  4.036445E+01
        12   4  6.938070E+00  7.406029E+01 -4.310821E+01  1.530261E+01 -1.499136E+01  3.429280E+01
        12   5 -1.755978E+00  2.161547E+00 -3.223669E-01 -2.355539E+00 -1.664540E+00 -3.925684E+00
        12   6  2.794962E+00  9.333682E+00  9.618940E+00 -3.973267E+00 -3.480494E+00  5.823086E+00
        12   7  3.104045E-02  1.514593E+01  1.103811E+01 -9.827457E-01  1.708027E+00 -2.020884E+00
        12   8 -1.816636E+00  1.475422E+01  4.730918E+00 -2.363708E+00  4.320254E+00  1.194721E+00
        13   1  2.235337E+00  4.772121E+00 -1.952751E+00  2.673445E+00  2.370355E+00  4.272384E+00
        13   2  3.023119E-01 -3.854289E+00 -5.512754E+00  3.466639E+00  1.947064E+00 -8.355643E+00
        13   3 -2.184987E+00 -6.984864E-01  9.315503E-01  2.922299E+00 -2.813039E+00 -3.556956E+00
        13   4 -3.881252E+00 -9.762932E+00  9.846668E-01 -8.057841E-01 -1.081202E+00  3.910661E-01
        13   5 -8.733806E-01 -4.086125E-02 -9.248790E-01 -1.628386E+00 -1.766218E+00 -3.778012E+00
        13   6  1.382498E-01  1.855901E+00 -1.636512E-01 -2.539503E-01 -4.322625E-01  4.590241E+00
        13   7  1.105265E-01 -6.684560E-01  1.265886E+00 -1.692125E-01  1.390570E+00 -4.108007E-01
        13   8  1.274938E+00  1.236287E+00  1.294683E+00  7.156596E-02  5.405872E-01 -2.390339E+00
        14   1  3.025027E-01 -3.853815E+00 -5.578796E+00 -3.468064E+00 -1.932627E+00 -8.357075E+00
        14   2  2.235961E+00  4.771315E+00 -2.200626E+00 -2.674326E+00 -2.365638E+00  4.267251E+00
        14   3 -3.881151E+00 -9.762926E+00  9.184430E-01  8.047467E-01  1.095173E+00  3.891578E-01
        14   4 -2.184853E+00 -7.009122E-01  6.836134E-01 -2.923326E+00  2.818179E+00 -3.563183E+00
        14   5  1.383414E-01  1.855655E+00 -2.228391E-01  2.541710E-01  4.492233E-01  4.588928E+00
        14   6 -8.733737E-01 -4.151355E-02 -1.146321E+00  1.628585E+00  1.773414E+00 -3.782224E+00
        14   7  1.273957E+00  1.235245E+00  1.234771E+00 -7.206307E-02 -5.271281E-01 -2.391243E+00
        14   8  1.100605E-01 -6.703754E-01  1.043786E+00  1.689183E-01 -1.385601E+00 -4.129927E-01
        15   1 -3.171789E+00 -2.110682E+00  1.228871E+00 -2.059606E+00 -2.425698E+00  1.608488E+00
        15   2  3.040322E+00  8.181577E+00  7.613083E+00 -2.908223E+00 -1.917160E-01  9.998051E+00
        15   3  1.592364E+00  6.660682E+00  6.208703E+00  8.816338E-01  9.049817E-01 -4.002677E+00
        15   4  2.139083E+00  5.677353E+00  7.479969E-01 -1.065348E-01  3.038949E+00 -1.981850E+00
        15   5 -4.263933E-01 -1.341177E+00  1.432021E+00  8.389909E-01  1.734347E+00  6.491165E-01
        15   6 -5.004312E-01 -2.338443E+00  1.784266E-01  4.124251E-01  6.521485E-01 -5.869681E+00
        15   7 -6.734196E-01 -1.124469E+00  3.067907E+00  5.925067E-01 -1.557722E+00  2.081645E-01
        15   8 -2.963049E-02 -1.240162E+00  4.402350E+00  2.359649E-01 -7.259891E-01 -2.280089E+00
        16   1  3.041148E+00  8.179126E+00  7.546537E+00  2.906519E+00  2.057939E-01  9.996097E+00
        16   2 -3.173561E+00 -2.121036E+00  9.794677E-01  2.057693E+00  2.431443E+00  1.601461E+00
        16   3  2.140295E+00  5.675413E+00  6.818377E-01  1.068815E-01 -3.025165E+00 -1.983490E+00
        16   4  1.590245E+00  6.651952E+00  5.961497E+00 -8.826034E-01 -8.987197E-01 -4.008808E+00
        16   5 -4.998923E-01 -2.338729E+00  1.192174E-01 -4.128962E-01 -6.393283E-01 -5.870894E+00
        16   6 -4.254902E-01 -1.343131E+00  1.211144E+00 -8.380424E-01 -1.729312E+00  6.459696E-01
        16   7 -2.786449E-02 -1.240474E+00  4.343237E+00 -2.351301E-01  7.387153E-01 -2.281495E+00
        16   8 -6.726521E-01 -1.128022E+00  2.847160E+00 -5.921617E-01  1.563756E+00  2.040961E-01
        17   1 -1.760003E-01 -1.204304E+00  1.892425E-01 -1.468245E-01  1.793950E+00  2.939879E+00
        17   2 -1.113079E-01 -3.591226E-01  4.846650E-01 -7.079233E-01  1.774160E-01 -5.697607E+00
        17   3  9.111727E-02 -8.458085E-01  1.308035E+00 -3.284688E-01 -1.312769E+00 -4.307550E-01
        17   4  6.188372E-01  1.284925E+00  1.376800E+00  3.418791E-01 -7.913206E-01  1.665242E+00
        17   5  8.881065E-01  4.221967E-01  1.306266E+00  5.121274E+00 -1.785067E+00 -4.383451E+00
        17   6 -1.681712E+00 -5.504526E+00 -9.589024E-01  1.361479E+00 -2.652467E-01  9.879417E+00
        17   7  1.851327E+00  3.758999E+00  1.467072E+00 -2.707191E-01  2.052985E+00  1.741069E-01
        17   8 -2.881442E+00 -6.815249E+00  1.821246E+00 -2.083420E-01  1.614086E+00 -4.016311E+00
        18   1 -1.110334E-01 -3.592200E-01  4.308075E-01  7.078606E-01 -1.594555E-01 -5.698669E+00
        18   2 -1.760149E-01 -1.203876E+00 -1.275075E-02  1.470116E-01 -1.786778E+00  2.937099E+00
        18   3  6.186847E-01  1.284343E+00  1.322419E+00 -3.424996E-01  8.055122E-01  1.664561E+00
        18   4  9.158415E-02 -8.462020E-01  1.105281E+00  3.282746E-01  1.318270E+00 -4.321907E-01
        18   5 -1.681587E+00 -5.504787E+00 -1.005326E+00 -1.361338E+00  2.848088E-01  9.878417E+00
        18   6  8.878939E-01  4.217767E-01  1.131986E+00 -5.121096E+00  1.793251E+00 -4.385765E+00
        18   7 -2.881567E+00 -6.815737E+00  1.774646E+00  2.076319E-01 -1.599280E+00 -4.016713E+00
        18   8  1.851774E+00  3.758468E+00  1.293020E+00  2.704056E-01 -2.047956E+00  1.739346E-01
        19   1  9.002787E-01  1.224931E+00  2.893357E+00  7.467948E-02 -1.642350E+00 -3.213647E+00
        19   2 -7.294349E-01 -9.162956E-01  2.841671E-01  6.239448E-01 -9.942265E-01  3.096202E+00
        19   3 -3.169640E-02 -1.303189E+00  1.606787E+00 -5.335335E-01  1.779593E+00  1.024764E-01
        19   4 -3.685539E-01 -8.489876E-01  1.855965E+00 -4.624051E-02  2.480916E-01  2.838276E+00
        19   5  4.719907E-01 -2.110366E-01  3.913715E-01 -1.775606E+00  1.314607E+00  1.967480E+00
        19   6  6.989602E-01  2.393764E+00  4.538319E+00 -1.119996E+00  7.130051E-01 -5.746398E+00
        19   7  2.371199E-01 -7.565135E-01  1.998378E+00 -1.016192E+00 -1.263268E+00  7.659733E-01
        19   8 -4.080605E-01  1.518768E+00 -4.173176E-01 -5.996554E-01 -7.499034E-01 -1.756251E+00
        20   1 -7.295077E-01 -9.164339E-01  2.302340E-01 -6.248287E-01  1.006832E+00  3.095330E+00
        20   2  9.003183E-01  1.223157E+00  2.690872E+00 -7.523184E-02  1.647443E+00 -3.215760E+00
        20   3 -3.716441E-01 -8.506383E-01  1.801642E+00  4.590928E-02 -2.375296E-01  2.837202E+00
        20   4 -3.566150E-02 -1.307852E+00  1.404808E+00  5.313327E-01 -1.775556E+00  9.963381E-02
        20   5  6.993642E-01  2.393812E+00  4.491934E+00  1.118535E+00 -6.988636E-01 -5.746675E+00
        20   6  4.719833E-01 -2.127982E-01  2.162765E-01  1.774791E+00 -1.309011E+00  1.966826E+00
        20   7 -4.103751E-01  1.517578E+00 -4.651072E-01  5.992280E-01  7.653892E-01 -1.756846E+00
        20   8  2.321805E-01 -7.609671E-01  1.819229E+00  1.013851E+00  1.271870E+00  7.641410E-01
        21   1 -3.387094E+00 -3.900981E+00 -8.967789E-01 -6.001952E+00  2.276771E+00  5.331887E+00